ITEM: TIMESTEP
0
ITEM: NUMBER OF ATOMS
2880
ITEM: BOX BOUNDS pp pp pp
0.0000000000000000e+00 9.6000000000000014e+00
0.0000000000000000e+00 1.2000000000000000e+01
0.0000000000000000e+00 2.0000000000000001e-01
ITEM: ATOMS id type x y z vx vy vz fx fy fz mass c_density c_peratom[1] c_peratom[2] c_peratom[3] c_peratom[4]
1 2 0 0 0 0 0 0 -1.8724e-05 -0.00954788 0 0.04 0.999903 -0.0102534 -0.0064324 -0 -1.03228e-06
2 2 0.2 0 0 0 0 0 -9.98656e-06 -0.00956879 0 0.04 0.999903 -0.0102547 -0.0064327 -0 -8.74363e-07
3 2 0.4 0 0 0 0 0 -1.14382e-05 -0.00956272 0 0.04 0.999903 -0.0102548 -0.00643175 -0 2.04147e-06
49 2 0 0.2 0 0 0 0 2.87541e-06 -0.00957235 0 0.04 0.999903 -0.0102535 -0.00643377 -0 1.71741e-06
50 2 0.2 0.2 0 0 0 0 -8.66778e-06 -0.00956117 0 0.04 0.999903 -0.010255 -0.00642841 -0 -6.36285e-07
51 2 0.4 0.2 0 0 0 0 9.52771e-06 -0.00956453 0 0.04 0.999903 -0.0102565 -0.00642834 -0 4.64839e-07
97 2 0 0.4 0 0 0 0 7.88551e-07 -0.00953339 0 0.04 0.999903 -0.0102541 -0.00643325 -0 -1.03568e-06
98 2 0.2 0.4 0 0 0 0 -1.51038e-05 -0.00955232 0 0.04 0.999903 -0.0102573 -0.00643395 -0 -3.19508e-07
99 2 0.4 0.4 0 0 0 0 -1.12277e-05 -0.00954663 0 0.04 0.999903 -0.0102524 -0.00643066 -0 -2.05063e-06
4 2 0.6 0 0 0 0 0 7.0491e-06 -0.0095696 0 0.04 0.999903 -0.0102538 -0.00642838 -0 8.0549e-07
5 2 0.8 0 0 0 0 0 8.13026e-06 -0.0095622 0 0.04 0.999903 -0.0102525 -0.00642931 -0 1.43291e-06
52 2 0.6 0.2 0 0 0 0 1.26698e-05 -0.00953662 0 0.04 0.999903 -0.0102593 -0.00642884 -0 -7.50338e-07
53 2 0.8 0.2 0 0 0 0 -3.57074e-06 -0.00955603 0 0.04 0.999903 -0.0102578 -0.00642987 -0 9.13438e-08
100 2 0.6 0.4 0 0 0 0 5.77027e-06 -0.00957729 0 0.04 0.999903 -0.0102548 -0.0064294 -0 -1.18018e-06
101 2 0.8 0.4 0 0 0 0 1.66532e-05 -0.00954973 0 0.04 0.999903 -0.0102483 -0.00643172 -0 1.76334e-06
6 2 1 0 0 0 0 0 1.26901e-05 -0.00955515 0 0.04 0.999903 -0.0102533 -0.00643333 -0 -8.33683e-07
7 2 1.2 0 0 0 0 0 0.0095372 -0.00956111 0 0.04 0.999903 -0.00643435 -0.00643185 -0 -2.26353e-06
8 2 1.4 0 0 0 0 0 -1.55526e-05 -0.00957517 0 0.04 0.999903 -0.0102558 -0.00642651 -0 1.34061e-06
54 2 1 0.2 0 0 0 0 -1.04048e-05 -0.00955348 0 0.04 0.999903 -0.0102552 -0.00642908 -0 6.46138e-07
55 2 1.2 0.2 0 0 0 0 0.00955721 -0.00954412 0 0.04 0.999903 -0.0064283 -0.00643214 -0 2.99906e-06
56 2 1.4 0.2 0 0 0 0 1.99407e-06 -0.00956937 0 0.04 0.999903 -0.0102581 -0.00643427 -0 -6.41448e-07
102 2 1 0.4 0 0 0 0 6.92171e-06 -0.00955072 0 0.04 0.999903 -0.0102538 -0.00642935 -0 2.64128e-06
103 2 1.2 0.4 0 0 0 0 0.00955305 -0.00957139 0 0.04 0.999903 -0.00643451 -0.00643091 -0 -5.98177e-07
104 2 1.4 0.4 0 0 0 0 1.07911e-05 -0.00955326 0 0.04 0.999903 -0.0102524 -0.00643087 -0 -2.32745e-06
9 2 1.6 0 0 0 0 0 -1.53167e-05 -0.00956486 0 0.04 0.999903 -0.0102507 -0.00642957 -0 -3.87636e-07
10 2 1.8 0 0 0 0 0 -1.82126e-06 -0.00955593 0 0.04 0.999903 -0.0102589 -0.00643287 -0 8.743e-07
57 2 1.6 0.2 0 0 0 0 1.59751e-05 -0.00956513 0 0.04 0.999903 -0.0102552 -0.00642949 -0 -1.65292e-06
58 2 1.8 0.2 0 0 0 0 -3.89333e-06 -0.00955209 0 0.04 0.999903 -0.0102545 -0.0064304 -0 -1.31032e-06
105 2 1.6 0.4 0 0 0 0 -9.52513e-06 -0.00956483 0 0.04 0.999903 -0.0102552 -0.00643084 -0 -1.44349e-06
106 2 1.8 0.4 0 0 0 0 1.55458e-05 -0.00955102 0 0.04 0.999903 -0.0102525 -0.00642941 -0 -4.78941e-07
11 2 2 0 0 0 0 0 -0.00954927 -0.00954055 0 0.04 0.999903 -0.00643208 -0.00642593 -0 -1.122e-07
12 2 2.2 0 0 0 0 0 0.00957784 -0.00956062 0 0.04 0.999903 -0.00643035 -0.00643081 -0 1.44523e-06
59 2 2 0.2 0 0 0 0 -0.00955954 -0.0095624 0 0.04 0.999903 -0.00642801 -0.00643015 -0 -5.75439e-07
60 2 2.2 0.2 0 0 0 0 0.00957887 -0.00957258 0 0.04 0.999903 -0.00643621 -0.00643133 -0 1.55312e-06
107 2 2 0.4 0 0 0 0 -0.00960704 -0.00954348 0 0.04 0.999903 -0.00643094 -0.00642852 -0 7.78615e-07
108 2 2.2 0.4 0 0 0 0 0.00953973 -0.0095579 0 0.04 0.999903 -0.00642792 -0.00643014 -0 5.55045e-08
13 2 2.4 0 0 0 0 0 0.00956802 -0.00955981 0 0.04 0.999903 -0.00643067 -0.0064332 -0 -3.66258e-07
14 2 2.6 0 0 0 0 0 -1.48101e-05 -0.00956027 0 0.04 0.999903 -0.0102478 -0.00642844 -0 1.81928e-06
15 2 2.8 0 0 0 0 0 0.00955294 -0.00953497 0 0.04 0.999903 -0.00643065 -0.00643004 -0 -2.48656e-06
61 2 2.4 0.2 0 0 0 0 0.0095459 -0.0095701 0 0.04 0.999903 -0.00642811 -0.00643326 -0 1.24399e-06
62 2 2.6 0.2 0 0 0 0 -1.00974e-05 -0.0095521 0 0.04 0.999903 -0.0102543 -0.00643041 -0 -1.25548e-06
63 2 2.8 0.2 0 0 0 0 0.00957252 -0.00958129 0 0.04 0.999903 -0.00643136 -0.00643229 -0 -8.32047e-07
109 2 2.4 0.4 0 0 0 0 0.00955858 -0.00955833 0 0.04 0.999903 -0.00643383 -0.0064302 -0 -3.31099e-06
110 2 2.6 0.4 0 0 0 0 3.23146e-05 -0.00956212 0 0.04 0.999903 -0.0102496 -0.00643121 -0 -1.11228e-06
111 2 2.8 0.4 0 0 0 0 0.00956152 -0.00956187 0 0.04 0.999903 -0.00642845 -0.0064298 -0 -2.25234e-06
16 2 3 0 0 0 0 0 -0.00955708 -0.0095255 0 0.04 0.999903 -0.00643185 -0.00643242 -0 -9.68682e-07
17 2 3.2 0 0 0 0 0 -7.91548e-07 -0.00956602 0 0.04 0.999903 -0.00260801 -0.0064332 -0 -4.21335e-07
64 2 3 0.2 0 0 0 0 -0.00959534 -0.00959132 0 0.04 0.999903 -0.00642985 -0.00643345 -0 -3.68609e-07
65 2 3.2 0.2 0 0 0 0 -4.50899e-09 -0.00956062 0 0.04 0.999903 -0.00260569 -0.00643052 -0 -1.65958e-06
112 2 3 0.4 0 0 0 0 -0.00957104 -0.0095421 0 0.04 0.999903 -0.00642712 -0.00643064 -0 -1.75418e-06
113 2 3.2 0.4 0 0 0 0 -6.42978e-06 -0.00955137 0 0.04 0.999903 -0.00260954 -0.00643401 -0 -3.2014e-08
18 2 3.4 0 0 0 0 0 0.00956323 -0.00955574 0 0.04 0.999903 -0.00643159 -0.00643363 -0 5.79655e-07
19 2 3.6 0 0 0 0 0 -0.00956559 -0.00956736 0 0.04 0.999903 -0.00642666 -0.00643047 -0 1.2676e-06
20 2 3.8 0 0 0 0 0 1.90298e-05 -0.00960649 0 0.04 0.999903 -0.0102501 -0.00642926 -0 -1.42228e-06
66 2 3.4 0.2 0 0 0 0 0.00953996 -0.00955598 0 0.04 0.999903 -0.00642787 -0.00642956 -0 -1.1756e-06
67 2 3.6 0.2 0 0 0 0 -0.00955391 -0.00954539 0 0.04 0.999903 -0.00642969 -0.0064295 -0 -7.48082e-07
68 2 3.8 0.2 0 0 0 0 8.83912e-06 -0.00955956 0 0.04 0.999903 -0.0102565 -0.00643148 -0 -1.19774e-06
114 2 3.4 0.4 0 0 0 0 0.00956479 -0.00953529 0 0.04 0.999903 -0.00643212 -0.00643144 -0 -1.10021e-06
115 2 3.6 0.4 0 0 0 0 -0.00957593 -0.00953104 0 0.04 0.999903 -0.00643137 -0.00642985 -0 -3.42801e-06
116 2 3.8 0.4 0 0 0 0 6.21328e-06 -0.00955271 0 0.04 0.999903 -0.0102536 -0.00643353 -0 1.27571e-06
21 2 4 0 0 0 0 0 -0.00957344 -0.00959075 0 0.04 0.999903 -0.00642879 -0.00643328 -0 -1.22188e-06
22 2 4.2 0 0 0 0 0 -1.98088e-05 -0.0095495 0 0.04 0.999903 -0.00260636 -0.00643144 -0 -2.90303e-06
69 2 4 0.2 0 0 0 0 -0.00956185 -0.00956685 0 0.04 0.999903 -0.00643284 -0.00643099 -0 1.32927e-06
70 2 4.2 0.2 0 0 0 0 1.81079e-05 -0.0095743 0 0.04 0.999903 -0.00260862 -0.00643191 -0 6.60804e-07
117 2 4 0.4 0 0 0 0 -0.00956491 -0.0095326 0 0.04 0.999903 -0.00642768 -0.00643213 -0 -2.77864e-06
118 2 4.2 0.4 0 0 0 0 -1.95219e-06 -0.00956261 0 0.04 0.999903 -0.00260367 -0.00643646 -0 -1.72372e-06
23 2 4.4 0 0 0 0 0 0.00953551 -0.00955989 0 0.04 0.999903 -0.00643318 -0.00643445 -0 -1.55158e-06
24 2 4.6 0 0 0 0 0 0.00957398 -0.00952803 0 0.04 0.999903 -0.0064324 -0.00643072 -0 -5.04077e-07
71 2 4.4 0.2 0 0 0 0 0.00954964 -0.00955578 0 0.04 0.999903 -0.00643142 -0.00643323 -0 -3.61551e-07
72 2 4.6 0.2 0 0 0 0 0.00955651 -0.00954221 0 0.04 0.999903 -0.00642822 -0.00642789 -0 -1.99097e-06
119 2 4.4 0.4 0 0 0 0 0.00953835 -0.00952514 0 0.04 0.999903 -0.00642704 -0.00642738 -0 -2.30818e-06
120 2 4.6 0.4 0 0 0 0 0.00954144 -0.00957474 0 0.04 0.999903 -0.00643185 -0.00642982 -0 -1.65772e-06
25 2 4.8 0 0 0 0 0 0.00955514 -0.00956473 0 0.04 0.999903 -0.00643408 -0.00643254 -0 -1.56745e-07
26 2 5 0 0 0 0 0 -0.00955772 -0.00957468 0 0.04 0.999903 -0.0064331 -0.00643075 -0 -1.52482e-06
27 2 5.2 0 0 0 0 0 1.10621e-05 -0.00953383 0 0.04 0.999903 -0.00260627 -0.0064338 -0 -1.89576e-06
73 2 4.8 0.2 0 0 0 0 0.00956474 -0.00956543 0 0.04 0.999903 -0.0064309 -0.00642789 -0 -1.16996e-06
74 2 5 0.2 0 0 0 0 -0.00956894 -0.00955348 0 0.04 0.999903 -0.00643394 -0.00642846 -0 2.13142e-06
75 2 5.2 0.2 0 0 0 0 1.18266e-05 -0.00956997 0 0.04 0.999903 -0.00260882 -0.00643382 -0 1.30378e-06
121 2 4.8 0.4 0 0 0 0 0.00956643 -0.00956399 0 0.04 0.999903 -0.006432 -0.00642886 -0 1.09944e-06
122 2 5 0.4 0 0 0 0 -0.00957377 -0.00957321 0 0.04 0.999903 -0.00643109 -0.00643088 -0 -1.0189e-06
123 2 5.2 0.4 0 0 0 0 -1.80894e-05 -0.00954859 0 0.04 0.999903 -0.0026085 -0.00643361 -0 -7.50061e-07
28 2 5.4 0 0 0 0 0 -1.25711e-05 -0.00955266 0 0.04 0.999903 -0.00261327 -0.00642922 -0 -8.49626e-07
29 2 5.6 0 0 0 0 0 7.96715e-06 -0.0095593 0 0.04 0.999903 -0.0026136 -0.00642649 -0 1.19516e-06
76 2 5.4 0.2 0 0 0 0 2.37059e-06 -0.00954698 0 0.04 0.999903 -0.00260911 -0.00643244 -0 7.64054e-07
77 2 5.6 0.2 0 0 0 0 7.08982e-07 -0.00955213 0 0.04 0.999903 -0.00260711 -0.00643264 -0 9.13049e-07
124 2 5.4 0.4 0 0 0 0 1.51303e-05 -0.00954811 0 0.04 0.999903 -0.00261128 -0.00643191 -0 -2.73039e-07
125 2 5.6 0.4 0 0 0 0 1.96376e-05 -0.00956722 0 0.04 0.999903 -0.00260487 -0.00642947 -0 -9.70018e-07
30 2 5.8 0 0 0 0 0 0.00956194 -0.00958838 0 0.04 0.999903 -0.00643274 -0.00643442 -0 -9.31051e-07
31 2 6 0 0 0 0 0 -0.00956498 -0.00958309 0 0.04 0.999903 -0.00643491 -0.00643352 -0 -6.68369e-07
32 2 6.2 0 0 0 0 0 3.29027e-05 -0.00955725 0 0.04 0.999903 -0.00260829 -0.00642845 -0 -3.28458e-07
78 2 5.8 0.2 0 0 0 0 0.00953221 -0.00956113 0 0.04 0.999903 -0.00643463 -0.00643625 -0 -6.99239e-07
79 2 6 0.2 0 0 0 0 -0.00954062 -0.00953237 0 0.04 0.999903 -0.00643376 -0.0064318 -0 -1.52236e-06
80 2 6.2 0.2 0 0 0 0 2.77683e-06 -0.00954906 0 0.04 0.999903 -0.00260916 -0.00643368 -0 2.43481e-06
126 2 5.8 0.4 0 0 0 0 0.00955255 -0.00957154 0 0.04 0.999903 -0.00642845 -0.00643113 -0 9.1477e-07
127 2 6 0.4 0 0 0 0 -0.00953976 -0.00957843 0 0.04 0.999903 -0.0064345 -0.00643159 -0 1.80246e-06
128 2 6.2 0.4 0 0 0 0 -1.83569e-06 -0.00956176 0 0.04 0.999903 -0.00260509 -0.00643187 -0 6.69302e-07
33 2 6.4 0 0 0 0 0 1.46559e-05 -0.00958102 0 0.04 0.999903 -0.00260943 -0.00642848 -0 -6.02128e-07
34 2 6.6 0 0 0 0 0 6.84994e-06 -0.00957331 0 0.04 0.999903 -0.00260967 -0.00643345 -0 -3.55715e-07
81 2 6.4 0.2 0 0 0 0 4.51505e-07 -0.00952335 0 0.04 0.999903 -0.00260633 -0.00642852 -0 -4.105e-08
82 2 6.6 0.2 0 0 0 0 -1.79934e-05 -0.00956464 0 0.04 0.999903 -0.00260377 -0.00642963 -0 1.2325e-06
129 2 6.4 0.4 0 0 0 0 5.09336e-06 -0.00956873 0 0.04 0.999903 -0.00260963 -0.00642911 -0 -1.00191e-06
130 2 6.6 0.4 0 0 0 0 5.54251e-06 -0.00956101 0 0.04 0.999903 -0.0026104 -0.00642875 -0 4.89635e-07
35 2 6.8 0 0 0 0 0 0.00958551 -0.00955278 0 0.04 0.999903 -0.00642688 -0.00643071 -0 -5.19355e-07
36 2 7 0 0 0 0 0 -0.0095592 -0.00954219 0 0.04 0.999903 -0.00643013 -0.00642935 -0 3.5829e-07
37 2 7.2 0 0 0 0 0 -3.34334e-05 -0.00952226 0 0.04 0.999903 -0.0026039 -0.00643096 -0 2.66901e-06
83 2 6.8 0.2 0 0 0 0 0.00955645 -0.00958434 0 0.04 0.999903 -0.00642932 -0.00643493 -0 -6.47655e-07
84 2 7 0.2 0 0 0 0 -0.00953764 -0.00958165 0 0.04 0.999903 -0.00643212 -0.00643066 -0 -1.74852e-06
85 2 7.2 0.2 0 0 0 0 -2.68881e-05 -0.00953964 0 0.04 0.999903 -0.00260388 -0.00643207 -0 6.484e-07
131 2 6.8 0.4 0 0 0 0 0.00956564 -0.00954484 0 0.04 0.999903 -0.00643146 -0.00643212 -0 -1.45616e-06
132 2 7 0.4 0 0 0 0 -0.0095368 -0.00955058 0 0.04 0.999903 -0.00642898 -0.0064311 -0 8.49669e-07
133 2 7.2 0.4 0 0 0 0 6.98138e-06 -0.00955468 0 0.04 0.999903 -0.00260635 -0.00642901 -0 3.05647e-07
38 2 7.4 0 0 0 0 0 -0.00951698 -0.00958729 0 0.04 0.999903 -0.00642913 -0.00643548 -0 -6.27201e-07
39 2 7.6 0 0 0 0 0 1.09349e-06 -0.00956435 0 0.04 0.999903 -0.00260574 -0.00642994 -0 -1.71553e-06
86 2 7.4 0.2 0 0 0 0 -0.0095569 -0.00954839 0 0.04 0.999903 -0.00642871 -0.00643667 -0 7.2621e-07
87 2 7.6 0.2 0 0 0 0 3.9274e-06 -0.00955085 0 0.04 0.999903 -0.00260817 -0.00642931 -0 -2.07816e-06
134 2 7.4 0.4 0 0 0 0 -0.00953522 -0.00957352 0 0.04 0.999903 -0.00643041 -0.00642922 -0 9.4069e-07
135 2 7.6 0.4 0 0 0 0 1.29011e-05 -0.00955686 0 0.04 0.999903 -0.00260755 -0.00643404 -0 1.32266e-06
40 2 7.8 0 0 0 0 0 0.00956292 -0.00955876 0 0.04 0.999903 -0.00642718 -0.00643201 -0 2.69756e-07
41 2 8 0 0 0 0 0 -0.00955256 -0.00955436 0 0.04 0.999903 -0.00642749 -0.0064297 -0 -1.25482e-07
88 2 7.8 0.2 0 0 0 0 0.00955129 -0.00955099 0 0.04 0.999903 -0.00642883 -0.00642794 -0 2.15409e-06
89 2 8 0.2 0 0 0 0 -0.00958605 -0.00955745 0 0.04 0.999903 -0.00643221 -0.00643277 -0 6.12301e-07
136 2 7.8 0.4 0 0 0 0 0.00953322 -0.00954485 0 0.04 0.999903 -0.00642875 -0.00642756 -0 -3.75493e-07
137 2 8 0.4 0 0 0 0 -0.00954836 -0.00956375 0 0.04 0.999903 -0.00643044 -0.00642965 -0 -1.27994e-06
42 2 8.2 0 0 0 0 0 0.0095548 -0.00954486 0 0.04 0.999903 -0.00642768 -0.00642969 -0 1.35437e-06
43 2 8.4 0 0 0 0 0 -0.00955737 -0.00952969 0 0.04 0.999903 -0.00643029 -0.00642763 -0 -4.62756e-07
44 2 8.6 0 0 0 0 0 -0.00955138 -0.00954953 0 0.04 0.999903 -0.00642887 -0.00642616 -0 1.77895e-06
90 2 8.2 0.2 0 0 0 0 0.00954574 -0.00954967 0 0.04 0.999903 -0.00643209 -0.00642993 -0 -1.70071e-06
91 2 8.4 0.2 0 0 0 0 -0.00957825 -0.009565 0 0.04 0.999903 -0.00643471 -0.00643162 -0 1.00418e-06
92 2 8.6 0.2 0 0 0 0 -0.00952945 -0.00956647 0 0.04 0.999903 -0.00642984 -0.00642646 -0 2.31742e-07
138 2 8.2 0.4 0 0 0 0 0.00955845 -0.00954711 0 0.04 0.999903 -0.00643001 -0.00643215 -0 2.1039e-07
139 2 8.4 0.4 0 0 0 0 -0.0095672 -0.00957264 0 0.04 0.999903 -0.00643185 -0.00643074 -0 -1.44068e-06
140 2 8.6 0.4 0 0 0 0 -0.00954599 -0.00955649 0 0.04 0.999903 -0.00642647 -0.00642737 -0 -4.56938e-07
45 2 8.8 0 0 0 0 0 2.57137e-05 -0.00956314 0 0.04 0.999903 -0.0102504 -0.00642967 -0 1.8986e-06
46 2 9 0 0 0 0 0 -0.0095715 -0.00954641 0 0.04 0.999903 -0.00642878 -0.00643253 -0 -1.39599e-06
93 2 8.8 0.2 0 0 0 0 7.62073e-06 -0.0095556 0 0.04 0.999903 -0.0102541 -0.00643368 -0 5.48067e-07
94 2 9 0.2 0 0 0 0 -0.0095814 -0.00954906 0 0.04 0.999903 -0.00642601 -0.0064284 -0 3.45364e-06
141 2 8.8 0.4 0 0 0 0 8.72673e-06 -0.00956226 0 0.04 0.999903 -0.0102531 -0.00642604 -0 -2.83405e-06
142 2 9 0.4 0 0 0 0 -0.00955575 -0.00957916 0 0.04 0.999903 -0.006427 -0.0064298 -0 -1.03425e-06
47 2 9.2 0 0 0 0 0 -2.77619e-05 -0.00955606 0 0.04 0.999903 -0.0102529 -0.00643031 -0 -1.72587e-06
48 2 9.4 0 0 0 0 0 7.07753e-06 -0.00955466 0 0.04 0.999903 -0.0102533 -0.00643022 -0 1.5792e-07
95 2 9.2 0.2 0 0 0 0 3.06532e-05 -0.00956528 0 0.04 0.999903 -0.0102493 -0.00642965 -0 -1.64613e-06
96 2 9.4 0.2 0 0 0 0 -7.21365e-06 -0.0095452 0 0.04 0.999903 -0.0102514 -0.00643059 -0 -2.85097e-06
143 2 9.2 0.4 0 0 0 0 -3.45878e-05 -0.00954758 0 0.04 0.999903 -0.0102553 -0.00643156 -0 1.56141e-06
144 2 9.4 0.4 0 0 0 0 5.52594e-06 -0.00955303 0 0.04 0.999903 -0.0102564 -0.00642854 -0 1.8983e-06
145 2 0 0.6 0 0 0 0 8.02016e-06 -0.00956161 0 0.04 0.999903 -0.0102523 -0.00643396 -0 -2.32843e-07
146 2 0.2 0.6 0 0 0 0 1.11299e-06 -0.00957271 0 0.04 0.999903 -0.0102519 -0.0064311 -0 5.57599e-07
147 2 0.4 0.6 0 0 0 0 1.02098e-06 -0.0095577 0 0.04 0.999903 -0.0102538 -0.00642951 -0 3.79993e-08
193 2 0 0.8 0 0 0 0 -1.96159e-05 1.00606e-05 0 0.04 0.999903 -0.0102543 -0.0102563 -0 -1.61259e-06
194 2 0.2 0.8 0 0 0 0 -2.2642e-05 -9.83755e-06 0 0.04 0.999903 -0.0102535 -0.0102535 -0 -4.72257e-07
195 2 0.4 0.8 0 0 0 0 5.1242e-06 -2.65028e-05 0 0.04 0.999903 -0.0102536 -0.0102514 -0 -8.44637e-07
148 2 0.6 0.6 0 0 0 0 1.43291e-05 -0.00956273 0 0.04 0.999903 -0.0102577 -0.00643113 -0 -2.86018e-06
149 2 0.8 0.6 0 0 0 0 9.95553e-06 -0.00954026 0 0.04 0.999903 -0.0102529 -0.00642962 -0 9.1186e-07
196 2 0.6 0.8 0 0 0 0 -2.82552e-05 3.92693e-06 0 0.04 0.999903 -0.0102548 -0.0102557 -0 -7.58615e-07
197 2 0.8 0.8 0 0 0 0 1.82862e-05 1.15477e-05 0 0.04 0.999903 -0.0102527 -0.0102539 -0 1.68604e-06
150 2 1 0.6 0 0 0 0 -1.53179e-05 -0.00957471 0 0.04 0.999903 -0.0102469 -0.00642655 -0 2.83584e-06
151 2 1.2 0.6 0 0 0 0 0.00954143 -0.00956752 0 0.04 0.999903 -0.00643262 -0.00643062 -0 -2.61172e-06
152 2 1.4 0.6 0 0 0 0 -2.88612e-05 -0.00955874 0 0.04 0.999903 -0.0102523 -0.00642638 -0 -2.93743e-07
198 2 1 0.8 0 0 0 0 -1.28855e-05 -1.40666e-05 0 0.04 0.999903 -0.0102545 -0.0102494 -0 -2.75176e-06
199 2 1.2 0.8 0 0 0 0 0.00954327 -1.50051e-06 0 0.04 0.999903 -0.00643134 -0.0102547 -0 -1.01082e-06
200 2 1.4 0.8 0 0 0 0 1.10423e-05 -1.19464e-05 0 0.04 0.999903 -0.0102522 -0.0102545 -0 2.1923e-06
153 2 1.6 0.6 0 0 0 0 -5.48287e-06 -0.00956454 0 0.04 0.999903 -0.0102522 -0.0064329 -0 -1.41613e-06
154 2 1.8 0.6 0 0 0 0 1.97699e-05 -0.00957311 0 0.04 0.999903 -0.0102563 -0.0064274 -0 -9.81657e-07
201 2 1.6 0.8 0 0 0 0 2.64248e-05 2.76904e-05 0 0.04 0.999903 -0.0102566 -0.010257 -0 -2.38188e-06
202 2 1.8 0.8 0 0 0 0 -1.99527e-05 -2.66083e-05 0 0.04 0.999903 -0.0102574 -0.0102609 -0 -2.10284e-06
155 2 2 0.6 0 0 0 0 -0.00953792 -0.00956681 0 0.04 0.999903 -0.0064326 -0.00643377 -0 1.15976e-06
156 2 2.2 0.6 0 0 0 0 0.00958046 -0.00955474 0 0.04 0.999903 -0.00643096 -0.00642869 -0 2.10576e-06
203 2 2 0.8 0 0 0 0 -0.00956519 -1.42537e-05 0 0.04 0.999903 -0.0064312 -0.0102577 -0 -1.30928e-06
204 2 2.2 0.8 0 0 0 0 0.00955703 -2.15721e-05 0 0.04 0.999903 -0.00643432 -0.0102566 -0 -6.8396e-07
157 2 2.4 0.6 0 0 0 0 0.00955045 -0.00957115 0 0.04 0.999903 -0.00643011 -0.00642882 -0 -4.77791e-07
158 2 2.6 0.6 0 0 0 0 4.28623e-06 -0.00956093 0 0.04 0.999903 -0.0102516 -0.0064293 -0 -2.25783e-06
159 2 2.8 0.6 0 0 0 0 0.0095966 -0.00953765 0 0.04 0.999903 -0.0064318 -0.00643207 -0 -1.66921e-07
205 2 2.4 0.8 0 0 0 0 0.00955423 -8.71013e-06 0 0.04 0.999903 -0.00643152 -0.0102557 -0 9.07294e-07
206 2 2.6 0.8 0 0 0 0 -1.15511e-06 -1.99993e-05 0 0.04 0.999903 -0.0102539 -0.0102514 -0 -1.93485e-07
207 2 2.8 0.8 0 0 0 0 0.00955749 1.06018e-05 0 0.04 0.999903 -0.00643191 -0.0102507 -0 -3.6584e-07
160 2 3 0.6 0 0 0 0 -0.00957156 -0.00955504 0 0.04 0.999903 -0.00642843 -0.00643089 -0 -1.18678e-06
161 2 3.2 0.6 0 0 0 0 -1.30952e-05 -0.00956143 0 0.04 0.999903 -0.00260742 -0.00642887 -0 -1.80872e-06
208 2 3 0.8 0 0 0 0 -0.00956097 -4.27797e-06 0 0.04 0.999903 -0.00643205 -0.0102575 -0 -5.28815e-09
209 2 3.2 0.8 0 0 0 0 -1.2251e-05 -1.42333e-05 0 0.04 0.999903 -0.00260609 -0.0102549 -0 1.00351e-06
162 2 3.4 0.6 0 0 0 0 0.00959298 -0.00955342 0 0.04 0.999903 -0.00643091 -0.00642737 -0 8.43954e-07
163 2 3.6 0.6 0 0 0 0 -0.00955633 -0.00956168 0 0.04 0.999903 -0.00643547 -0.00643207 -0 -2.65441e-07
164 2 3.8 0.6 0 0 0 0 -7.87655e-06 -0.00958621 0 0.04 0.999903 -0.0102537 -0.00642815 -0 3.96052e-07
210 2 3.4 0.8 0 0 0 0 0.00955771 -5.55122e-06 0 0.04 0.999903 -0.00642961 -0.0102513 -0 -1.01706e-06
211 2 3.6 0.8 0 0 0 0 -0.00956747 -1.88881e-05 0 0.04 0.999903 -0.0064268 -0.0102527 -0 3.33621e-07
212 2 3.8 0.8 0 0 0 0 1.9814e-05 -6.1018e-06 0 0.04 0.999903 -0.010256 -0.0102569 -0 -1.69904e-07
165 2 4 0.6 0 0 0 0 -0.0095442 -0.0095676 0 0.04 0.999903 -0.00643102 -0.00642948 -0 3.34882e-07
166 2 4.2 0.6 0 0 0 0 3.74924e-05 -0.00957924 0 0.04 0.999903 -0.0026052 -0.00643131 -0 -2.42131e-06
213 2 4 0.8 0 0 0 0 -0.00955968 2.40788e-06 0 0.04 0.999903 -0.00642629 -0.010256 -0 -3.58136e-07
214 2 4.2 0.8 0 0 0 0 -7.47424e-06 2.39126e-05 0 0.04 0.999903 -0.0026079 -0.0102545 -0 -1.74887e-06
167 2 4.4 0.6 0 0 0 0 0.00955078 -0.00956588 0 0.04 0.999903 -0.0064337 -0.00642974 -0 8.02794e-07
168 2 4.6 0.6 0 0 0 0 0.00954701 -0.00956651 0 0.04 0.999903 -0.00642835 -0.00643201 -0 -4.87359e-06
215 2 4.4 0.8 0 0 0 0 0.00956927 -2.34332e-05 0 0.04 0.999903 -0.00642654 -0.0102539 -0 -1.49704e-06
216 2 4.6 0.8 0 0 0 0 0.0095343 -1.36183e-05 0 0.04 0.999903 -0.00643165 -0.0102574 -0 -6.38173e-07
169 2 4.8 0.6 0 0 0 0 0.00956968 -0.00955047 0 0.04 0.999903 -0.00642662 -0.00642875 -0 1.308e-06
170 2 5 0.6 0 0 0 0 -0.00957356 -0.00954909 0 0.04 0.999903 -0.0064285 -0.00642887 -0 1.24446e-06
171 2 5.2 0.6 0 0 0 0 1.94264e-05 -0.00958033 0 0.04 0.999903 -0.00261097 -0.00643307 -0 -1.43573e-07
217 2 4.8 0.8 0 0 0 0 0.00958052 1.44063e-05 0 0.04 0.999903 -0.00642817 -0.010256 -0 -2.30089e-06
218 2 5 0.8 0 0 0 0 -0.0095502 6.33971e-06 0 0.04 0.999903 -0.00643048 -0.010256 -0 1.93543e-06
219 2 5.2 0.8 0 0 0 0 1.3961e-06 3.29633e-05 0 0.04 0.999903 -0.00260262 -0.0102539 -0 5.7031e-07
172 2 5.4 0.6 0 0 0 0 4.90041e-06 -0.00953571 0 0.04 0.999903 -0.00260704 -0.0064243 -0 -1.29254e-07
173 2 5.6 0.6 0 0 0 0 2.60646e-06 -0.00954573 0 0.04 0.999903 -0.00260557 -0.00642989 -0 1.09256e-06
220 2 5.4 0.8 0 0 0 0 -1.15562e-05 -2.30958e-05 0 0.04 0.999903 -0.00260426 -0.0102548 -0 1.07413e-06
221 2 5.6 0.8 0 0 0 0 -6.2273e-06 -5.58122e-06 0 0.04 0.999903 -0.00260384 -0.0102572 -0 -1.08483e-07
174 2 5.8 0.6 0 0 0 0 0.00955301 -0.00954509 0 0.04 0.999903 -0.00643068 -0.00643465 -0 2.83858e-06
175 2 6 0.6 0 0 0 0 -0.00956095 -0.00952456 0 0.04 0.999903 -0.00642878 -0.00643258 -0 -5.40866e-07
176 2 6.2 0.6 0 0 0 0 8.39277e-06 -0.00954469 0 0.04 0.999903 -0.0026045 -0.00642465 -0 -4.78676e-07
222 2 5.8 0.8 0 0 0 0 0.00954707 3.81481e-06 0 0.04 0.999903 -0.00643103 -0.0102587 -0 1.45514e-06
223 2 6 0.8 0 0 0 0 -0.00956877 -3.18594e-05 0 0.04 0.999903 -0.0064273 -0.0102526 -0 3.56446e-08
224 2 6.2 0.8 0 0 0 0 -9.05572e-06 -2.14486e-05 0 0.04 0.999903 -0.00260679 -0.0102573 -0 4.12215e-07
177 2 6.4 0.6 0 0 0 0 3.64888e-06 -0.00955764 0 0.04 0.999903 -0.00260622 -0.00642926 -0 7.80719e-07
178 2 6.6 0.6 0 0 0 0 -1.42688e-05 -0.00956734 0 0.04 0.999903 -0.00260669 -0.0064309 -0 1.60837e-06
225 2 6.4 0.8 0 0 0 0 -3.26837e-06 -1.3202e-05 0 0.04 0.999903 -0.00260629 -0.0102569 -0 2.68655e-07
226 2 6.6 0.8 0 0 0 0 8.51922e-06 2.0349e-05 0 0.04 0.999903 -0.00260263 -0.0102507 -0 -4.77352e-08
179 2 6.8 0.6 0 0 0 0 0.00953573 -0.00953527 0 0.04 0.999903 -0.00643052 -0.00642771 -0 -7.54983e-07
180 2 7 0.6 0 0 0 0 -0.00956221 -0.00955694 0 0.04 0.999903 -0.00643017 -0.00642795 -0 -3.70854e-07
181 2 7.2 0.6 0 0 0 0 -9.54285e-06 -0.00955812 0 0.04 0.999903 -0.00260753 -0.00643385 -0 2.35252e-06
227 2 6.8 0.8 0 0 0 0 0.00955855 8.2693e-06 0 0.04 0.999903 -0.00643064 -0.010254 -0 1.83955e-07
228 2 7 0.8 0 0 0 0 -0.00955695 -2.82007e-06 0 0.04 0.999903 -0.00643292 -0.0102568 -0 -1.51745e-06
229 2 7.2 0.8 0 0 0 0 9.74584e-06 4.21666e-06 0 0.04 0.999903 -0.00261101 -0.0102587 -0 -1.85602e-06
182 2 7.4 0.6 0 0 0 0 -0.0095535 -0.00954038 0 0.04 0.999903 -0.00643064 -0.00642729 -0 3.40259e-06
183 2 7.6 0.6 0 0 0 0 3.68687e-06 -0.00955454 0 0.04 0.999903 -0.00260396 -0.00642658 -0 -5.67645e-07
230 2 7.4 0.8 0 0 0 0 -0.00956714 -3.16247e-08 0 0.04 0.999903 -0.00643012 -0.010254 -0 -1.2006e-06
231 2 7.6 0.8 0 0 0 0 1.16273e-05 -2.18766e-05 0 0.04 0.999903 -0.00260505 -0.0102522 -0 5.28901e-07
184 2 7.8 0.6 0 0 0 0 0.00953136 -0.00957158 0 0.04 0.999903 -0.00643 -0.00642952 -0 -1.01025e-06
185 2 8 0.6 0 0 0 0 -0.00955532 -0.00956603 0 0.04 0.999903 -0.00643054 -0.00642878 -0 3.52685e-07
232 2 7.8 0.8 0 0 0 0 0.00956113 -8.8331e-06 0 0.04 0.999903 -0.00643233 -0.010254 -0 1.73104e-06
233 2 8 0.8 0 0 0 0 -0.00957616 -6.40721e-06 0 0.04 0.999903 -0.00642937 -0.0102544 -0 1.41243e-06
186 2 8.2 0.6 0 0 0 0 0.00957397 -0.00954711 0 0.04 0.999903 -0.00643255 -0.00642744 -0 1.88506e-07
187 2 8.4 0.6 0 0 0 0 -0.009537 -0.00959755 0 0.04 0.999903 -0.0064345 -0.0064317 -0 -7.64671e-08
188 2 8.6 0.6 0 0 0 0 -0.0095569 -0.00959038 0 0.04 0.999903 -0.00643517 -0.00643443 -0 -1.82501e-06
234 2 8.2 0.8 0 0 0 0 0.00957604 1.42058e-05 0 0.04 0.999903 -0.00643339 -0.0102511 -0 2.67979e-07
235 2 8.4 0.8 0 0 0 0 -0.00957097 1.42581e-05 0 0.04 0.999903 -0.00642661 -0.0102544 -0 -6.22435e-07
236 2 8.6 0.8 0 0 0 0 -0.00955179 9.42486e-07 0 0.04 0.999903 -0.00643 -0.0102586 -0 5.50312e-07
189 2 8.8 0.6 0 0 0 0 -1.4947e-05 -0.00957539 0 0.04 0.999903 -0.0102579 -0.0064289 -0 1.26829e-06
190 2 9 0.6 0 0 0 0 -0.00954603 -0.00956009 0 0.04 0.999903 -0.00642721 -0.00642585 -0 -9.23111e-08
237 2 8.8 0.8 0 0 0 0 2.32931e-05 -9.63977e-06 0 0.04 0.999903 -0.010256 -0.0102571 -0 2.95254e-07
238 2 9 0.8 0 0 0 0 -0.00954934 2.47096e-05 0 0.04 0.999903 -0.00643278 -0.0102591 -0 -6.24154e-07
191 2 9.2 0.6 0 0 0 0 7.66344e-06 -0.00958151 0 0.04 0.999903 -0.010253 -0.00642816 -0 2.89521e-07
192 2 9.4 0.6 0 0 0 0 2.26128e-06 -0.00956142 0 0.04 0.999903 -0.010252 -0.0064322 -0 2.56027e-06
239 2 9.2 0.8 0 0 0 0 -1.9782e-05 1.92408e-05 0 0.04 0.999903 -0.0102571 -0.0102544 -0 -2.37476e-07
240 2 9.4 0.8 0 0 0 0 1.8963e-07 -2.95078e-05 0 0.04 0.999903 -0.010256 -0.0102546 -0 -5.90847e-08
241 2 0 1 0 0 0 0 4.36784e-05 -2.71571e-06 0 0.04 0.999903 -0.0102604 -0.0102565 -0 -1.58294e-06
242 2 0.2 1 0 0 0 0 8.24878e-06 -2.31902e-06 0 0.04 0.999903 -0.010255 -0.0102544 -0 -9.79563e-07
243 2 0.4 1 0 0 0 0 -1.41241e-05 1.57565e-05 0 0.04 0.999903 -0.0102538 -0.0102528 -0 -2.78368e-06
289 1 0 1.2 0 0 0 0 0.00118741 0.0095593 0 0.04 0.999903 -0.0102533 -0.00642952 -0 -5.20425e-08
290 1 0.2 1.2 0 0 0 0 0.00124065 0.00957537 0 0.04 0.999903 -0.0102513 -0.00642877 -0 -1.01549e-06
291 1 0.4 1.2 0 0 0 0 0.00119103 0.00956102 0 0.04 0.999903 -0.0102554 -0.00643717 -0 1.3004e-06
337 1 0 1.4 0 0 0 0 0.00122873 -8.18434e-06 0 0.04 0.999903 -0.0102558 -0.0102534 -0 -5.92878e-07
338 1 0.2 1.4 0 0 0 0 0.00120612 -3.34655e-05 0 0.04 0.999903 -0.0102578 -0.0102582 -0 2.90155e-06
339 1 0.4 1.4 0 0 0 0 0.00120847 3.58524e-06 0 0.04 0.999903 -0.0102556 -0.0102518 -0 3.70743e-07
244 2 0.6 1 0 0 0 0 1.86461e-05 2.78019e-05 0 0.04 0.999903 -0.0102543 -0.0102534 -0 -4.45022e-07
245 2 0.8 1 0 0 0 0 2.07174e-05 -2.06006e-06 0 0.04 0.999903 -0.010253 -0.0102563 -0 -1.08113e-06
292 1 0.6 1.2 0 0 0 0 0.00122064 0.00955565 0 0.04 0.999903 -0.010252 -0.00642896 -0 7.67396e-07
293 1 0.8 1.2 0 0 0 0 0.00121331 0.00956301 0 0.04 0.999903 -0.0102515 -0.00642739 -0 1.3693e-06
340 1 0.6 1.4 0 0 0 0 0.00119352 -2.10067e-05 0 0.04 0.999903 -0.0102597 -0.0102544 -0 1.6147e-06
341 1 0.8 1.4 0 0 0 0 0.00121873 -1.85531e-05 0 0.04 0.999903 -0.0102557 -0.0102544 -0 2.54151e-06
246 2 1 1 0 0 0 0 7.22918e-06 6.03693e-06 0 0.04 0.999903 -0.0102542 -0.0102533 -0 -7.14996e-07
247 2 1.2 1 0 0 0 0 0.00954465 7.43587e-06 0 0.04 0.999903 -0.00642784 -0.0102531 -0 1.69271e-06
248 2 1.4 1 0 0 0 0 8.27667e-06 -1.29481e-05 0 0.04 0.999903 -0.0102539 -0.0102491 -0 -1.91094e-06
294 1 1 1.2 0 0 0 0 0.00119462 0.00954921 0 0.04 0.999903 -0.0102528 -0.00642925 -0 3.02168e-07
295 1 1.2 1.2 0 0 0 0 0.010746 0.00957647 0 0.04 0.999903 -0.00642763 -0.00642832 -0 -3.05589e-07
296 1 1.4 1.2 0 0 0 0 0.0011918 0.00957129 0 0.04 0.999903 -0.0102517 -0.00642928 -0 -3.40022e-07
342 1 1 1.4 0 0 0 0 0.00119682 -2.00254e-05 0 0.04 0.999903 -0.0102585 -0.0102565 -0 -1.73994e-06
343 1 1.2 1.4 0 0 0 0 0.0107873 -2.40684e-05 0 0.04 0.999903 -0.00643272 -0.0102546 -0 1.53019e-06
344 1 1.4 1.4 0 0 0 0 0.0011937 6.68233e-06 0 0.04 0.999903 -0.0102563 -0.0102481 -0 -1.23897e-06
249 2 1.6 1 0 0 0 0 -5.55669e-06 8.31861e-08 0 0.04 0.999903 -0.010255 -0.0102577 -0 -2.42901e-07
250 2 1.8 1 0 0 0 0 -3.41191e-05 9.41342e-06 0 0.04 0.999903 -0.0102531 -0.0102523 -0 1.1735e-06
297 1 1.6 1.2 0 0 0 0 0.00120704 0.00956861 0 0.04 0.999903 -0.0102519 -0.00643564 -0 -2.57243e-06
298 1 1.8 1.2 0 0 0 0 0.00121586 0.00958635 0 0.04 0.999903 -0.0102549 -0.00643261 -0 8.11649e-07
345 1 1.6 1.4 0 0 0 0 0.00118784 -2.71555e-06 0 0.04 0.999903 -0.0102503 -0.0102553 -0 -1.13263e-06
346 1 1.8 1.4 0 0 0 0 0.00118986 8.24022e-07 0 0.04 0.999903 -0.0102549 -0.0102503 -0 -7.84502e-07
251 2 2 1 0 0 0 0 -0.00954756 2.92802e-05 0 0.04 0.999903 -0.00643301 -0.0102572 -0 -1.83293e-06
252 2 2.2 1 0 0 0 0 0.00956127 1.15224e-05 0 0.04 0.999903 -0.00643244 -0.0102529 -0 2.85629e-07
299 1 2 1.2 0 0 0 0 -0.00836067 0.00955272 0 0.04 0.999903 -0.00643358 -0.0064328 -0 -5.90545e-07
300 1 2.2 1.2 0 0 0 0 0.0107464 0.00955297 0 0.04 0.999903 -0.00642926 -0.00642932 -0 8.12747e-08
347 1 2 1.4 0 0 0 0 -0.00835485 -6.7572e-06 0 0.04 0.999903 -0.00643291 -0.0102557 -0 -8.44093e-07
348 1 2.2 1.4 0 0 0 0 0.0107741 1.69067e-05 0 0.04 0.999903 -0.00642994 -0.0102563 -0 -1.64785e-06
253 2 2.4 1 0 0 0 0 0.00955061 2.08464e-05 0 0.04 0.999903 -0.00643067 -0.010252 -0 3.29603e-07
254 2 2.6 1 0 0 0 0 1.80553e-05 1.46729e-05 0 0.04 0.999903 -0.0102533 -0.0102539 -0 -5.88632e-07
255 2 2.8 1 0 0 0 0 0.0095982 1.90871e-05 0 0.04 0.999903 -0.00642747 -0.0102492 -0 3.00364e-07
301 1 2.4 1.2 0 0 0 0 0.0107691 0.00956019 0 0.04 0.999903 -0.0064299 -0.00643113 -0 -1.81048e-07
302 1 2.6 1.2 0 0 0 0 0.00121794 0.00953972 0 0.04 0.999903 -0.0102544 -0.00642998 -0 -6.06104e-07
303 1 2.8 1.2 0 0 0 0 0.0107297 0.00955154 0 0.04 0.999903 -0.00643289 -0.00642697 -0 1.8386e-07
349 1 2.4 1.4 0 0 0 0 0.0107579 6.06835e-06 0 0.04 0.999903 -0.00643044 -0.0102555 -0 2.91794e-06
350 1 2.6 1.4 0 0 0 0 0.00119061 3.72312e-06 0 0.04 0.999903 -0.0102601 -0.0102549 -0 -1.00303e-06
351 1 2.8 1.4 0 0 0 0 0.0107373 -3.45774e-05 0 0.04 0.999903 -0.00642813 -0.0102502 -0 -1.68855e-06
256 2 3 1 0 0 0 0 -0.00957378 5.54768e-06 0 0.04 0.999903 -0.00643499 -0.0102583 -0 4.87337e-07
257 2 3.2 1 0 0 0 0 -1.65091e-05 1.68419e-05 0 0.04 0.999903 -0.00260596 -0.0102551 -0 -3.16931e-06
304 1 3 1.2 0 0 0 0 -0.00837342 0.00956358 0 0.04 0.999903 -0.00642952 -0.00642693 -0 -7.02829e-07
305 1 3.2 1.2 0 0 0 0 0.00119767 0.00957003 0 0.04 0.999903 -0.00260928 -0.00643108 -0 -1.28785e-06
352 1 3 1.4 0 0 0 0 -0.00835346 3.02954e-06 0 0.04 0.999903 -0.00642907 -0.0102485 -0 -2.33601e-06
353 1 3.2 1.4 0 0 0 0 0.00121177 -1.04402e-05 0 0.04 0.999903 -0.00260837 -0.0102524 -0 1.60293e-06
258 2 3.4 1 0 0 0 0 0.00955615 -2.19943e-05 0 0.04 0.999903 -0.00643211 -0.010254 -0 5.4108e-07
259 2 3.6 1 0 0 0 0 -0.00954608 4.23183e-06 0 0.04 0.999903 -0.00643288 -0.0102525 -0 6.29951e-08
260 2 3.8 1 0 0 0 0 1.63029e-05 1.29683e-06 0 0.04 0.999903 -0.0102567 -0.0102576 -0 8.77213e-08
306 1 3.4 1.2 0 0 0 0 0.0107631 0.00959396 0 0.04 0.999903 -0.00643177 -0.00643213 -0 -1.42307e-06
307 1 3.6 1.2 0 0 0 0 -0.0083703 0.00956963 0 0.04 0.999903 -0.00643198 -0.00643166 -0 3.95813e-07
308 1 3.8 1.2 0 0 0 0 0.00120363 0.00954527 0 0.04 0.999903 -0.0102543 -0.00643049 -0 1.31498e-06
354 1 3.4 1.4 0 0 0 0 0.0107544 -1.23133e-05 0 0.04 0.999903 -0.00643656 -0.0102565 -0 -2.71207e-06
355 1 3.6 1.4 0 0 0 0 -0.0083783 2.49e-05 0 0.04 0.999903 -0.00643516 -0.0102543 -0 -5.33188e-08